 Entering Gaussian System, Link 0=g16
 Input=AAACLBGNAMDLRM-UHFFFAOYSA-N_3_sp.com
 Output=AAACLBGNAMDLRM-UHFFFAOYSA-N_3_sp.log
 Initial command:
 /shared/centos7/gaussian/g16/l1.exe "/scratch/abreha.b/dibenzoperylenes1_231_4_2018-09-19/sp-dft/Gau-15228.inp" -scrdir="/scratch/abreha.b/dibenzoperylenes1_231_4_2018-09-19/sp-dft/"
 Entering Link 1 = /shared/centos7/gaussian/g16/l1.exe PID=     15229.
  
 Copyright (c) 1988,1990,1992,1993,1995,1998,2003,2009,2016,
            Gaussian, Inc.  All Rights Reserved.
  
 This is part of the Gaussian(R) 16 program.  It is based on
 the Gaussian(R) 09 system (copyright 2009, Gaussian, Inc.),
 the Gaussian(R) 03 system (copyright 2003, Gaussian, Inc.),
 the Gaussian(R) 98 system (copyright 1998, Gaussian, Inc.),
 the Gaussian(R) 94 system (copyright 1995, Gaussian, Inc.),
 the Gaussian 92(TM) system (copyright 1992, Gaussian, Inc.),
 the Gaussian 90(TM) system (copyright 1990, Gaussian, Inc.),
 the Gaussian 88(TM) system (copyright 1988, Gaussian, Inc.),
 the Gaussian 86(TM) system (copyright 1986, Carnegie Mellon
 University), and the Gaussian 82(TM) system (copyright 1983,
 Carnegie Mellon University). Gaussian is a federally registered
 trademark of Gaussian, Inc.
  
 This software contains proprietary and confidential information,
 including trade secrets, belonging to Gaussian, Inc.
  
 This software is provided under written license and may be
 used, copied, transmitted, or stored only in accord with that
 written license.
  
 The following legend is applicable only to US Government
 contracts under FAR:
  
                    RESTRICTED RIGHTS LEGEND
  
 Use, reproduction and disclosure by the US Government is
 subject to restrictions as set forth in subparagraphs (a)
 and (c) of the Commercial Computer Software - Restricted
 Rights clause in FAR 52.227-19.
  
 Gaussian, Inc.
 340 Quinnipiac St., Bldg. 40, Wallingford CT 06492
  
  
 ---------------------------------------------------------------
 Warning -- This program may not be used in any manner that
 competes with the business of Gaussian, Inc. or will provide
 assistance to any competitor of Gaussian, Inc.  The licensee
 of this program is prohibited from giving any competitor of
 Gaussian, Inc. access to this program.  By using this program,
 the user acknowledges that Gaussian, Inc. is engaged in the
 business of creating and licensing software in the field of
 computational chemistry and represents and warrants to the
 licensee that it is not a competitor of Gaussian, Inc. and that
 it will not use this program in any manner prohibited above.
 ---------------------------------------------------------------
  

 Cite this work as:
 Gaussian 16, Revision A.03,
 M. J. Frisch, G. W. Trucks, H. B. Schlegel, G. E. Scuseria, 
 M. A. Robb, J. R. Cheeseman, G. Scalmani, V. Barone, 
 G. A. Petersson, H. Nakatsuji, X. Li, M. Caricato, A. V. Marenich, 
 J. Bloino, B. G. Janesko, R. Gomperts, B. Mennucci, H. P. Hratchian, 
 J. V. Ortiz, A. F. Izmaylov, J. L. Sonnenberg, D. Williams-Young, 
 F. Ding, F. Lipparini, F. Egidi, J. Goings, B. Peng, A. Petrone, 
 T. Henderson, D. Ranasinghe, V. G. Zakrzewski, J. Gao, N. Rega, 
 G. Zheng, W. Liang, M. Hada, M. Ehara, K. Toyota, R. Fukuda, 
 J. Hasegawa, M. Ishida, T. Nakajima, Y. Honda, O. Kitao, H. Nakai, 
 T. Vreven, K. Throssell, J. A. Montgomery, Jr., J. E. Peralta, 
 F. Ogliaro, M. J. Bearpark, J. J. Heyd, E. N. Brothers, K. N. Kudin, 
 V. N. Staroverov, T. A. Keith, R. Kobayashi, J. Normand, 
 K. Raghavachari, A. P. Rendell, J. C. Burant, S. S. Iyengar, 
 J. Tomasi, M. Cossi, J. M. Millam, M. Klene, C. Adamo, R. Cammi, 
 J. W. Ochterski, R. L. Martin, K. Morokuma, O. Farkas, 
 J. B. Foresman, and D. J. Fox, Gaussian, Inc., Wallingford CT, 2016.
 
 ******************************************
 Gaussian 16:  EM64L-G16RevA.03 25-Dec-2016
                20-Sep-2018 
 ******************************************
 %chk=AAACLBGNAMDLRM-UHFFFAOYSA-N_3_sp.chk
 %rwf=AAACLBGNAMDLRM-UHFFFAOYSA-N_3_sp.rwf
 %NoSave
 %mem=8GB
 %nproc=16
 Will use up to   16 processors via shared memory.
 ------------------
 #p M06/6-31+G(d,p)
 ------------------
 1/38=1,172=1/1;
 2/12=2,17=6,18=5,40=1/2;
 3/5=1,6=6,7=111,11=2,25=1,30=1,74=-54/1,2,3;
 4//1;
 5/5=2,38=5/2;
 6/7=2,8=2,9=2,10=2,28=1/1;
 99/5=1,9=1/99;
 Leave Link    1 at Thu Sep 20 16:23:12 2018, MaxMem=  1073741824 cpu:              24.2 elap:               1.6
 (Enter /shared/centos7/gaussian/g16/l101.exe)
 --------------------------------
 AAACLBGNAMDLRM-UHFFFAOYSA-N_3_sp
 --------------------------------
 Symbolic Z-matrix:
 Charge =  0 Multiplicity = 1
 O                    -6.616    -4.988    -2.52 
 N                    -6.773    -5.085    -1.325 
 O                    -7.732    -5.62     -0.819 
 C                    -5.746    -4.526    -0.447 
 C                    -5.75     -4.537     0.908 
 C                    -4.53     -3.875     1.364 
 C                    -3.817    -3.478     0.286 
 C                    -2.541    -2.791     0.265 
 C                    -2.498    -1.444     0.357 
 C                    -1.249    -0.737     0.319 
 C                    -1.201     0.661     0.419 
 C                    -2.399     1.439     0.567 
 C                    -2.35      2.786     0.664 
 C                    -3.577     3.547     0.797 
 C                    -4.243     3.862     1.93 
 C                    -5.425     4.646     1.584 
 C                    -5.448     4.79      0.237 
 N                    -6.453     5.508    -0.546 
 O                    -7.366     6.039     0.042 
 O                    -6.324     5.539    -1.748 
 C                    -4.28      4.106    -0.409 
 C                    -1.099     3.495     0.626 
 C                    -1.042     4.884     0.739 
 C                     0.182     5.536     0.7 
 C                     1.359     4.816     0.547 
 C                     1.32      3.427     0.428 
 C                     2.519     2.649     0.262 
 C                     3.789     3.342     0.173 
 C                     4.677     3.584     1.164 
 C                     5.811     4.323     0.615 
 C                     5.581     4.513    -0.707 
 N                     6.451     5.214    -1.651 
 O                     7.485     5.686    -1.236 
 O                     6.097     5.289    -2.804 
 C                     4.278     3.906    -1.132 
 C                     2.477     1.301     0.173 
 C                     1.23      0.592     0.227 
 C                     1.182    -0.807     0.133 
 C                     2.379    -1.585    -0.011 
 C                     2.331    -2.933    -0.114 
 C                     3.563    -3.678    -0.271 
 C                     3.976    -4.393    -1.344 
 C                     5.288    -4.965    -1.057 
 C                     5.642    -4.583     0.195 
 N                     6.879    -4.927     0.895 
 O                     7.035    -4.504     2.017 
 O                     7.688    -5.621     0.324 
 C                     4.587    -3.726     0.828 
 C                     1.081    -3.643    -0.062 
 C                     1.022    -5.035    -0.129 
 C                    -0.202    -5.686    -0.07 
 C                    -1.379    -4.964     0.059 
 C                    -1.34     -3.571     0.131 
 C                    -0.105    -2.898     0.079 
 C                    -0.057    -1.471     0.176 
 C                     0.038     1.326     0.372 
 C                     0.086     2.752     0.474 
 C                    -4.523    -3.848    -0.988 
 H                    -6.504    -4.956     1.57 
 H                    -4.274    -3.747     2.41 
 H                    -3.426    -0.866     0.462 
 H                    -3.364     0.916     0.599 
 H                    -3.976     3.598     2.948 
 H                    -6.139     5.032     2.309 
 H                    -3.639     4.803    -0.988 
 H                    -4.588     3.315    -1.123 
 H                    -1.959     5.469     0.864 
 H                     0.22      6.626     0.792 
 H                     2.316     5.35      0.527 
 H                     4.598     3.297     2.207 
 H                     6.67      4.649     1.197 
 H                     3.576     4.649    -1.564 
 H                     4.403     3.124    -1.908 
 H                     3.404     0.725     0.051 
 H                     3.343    -1.06     -0.046 
 H                     3.449    -4.542    -2.281 
 H                     5.852    -5.584    -1.75 
 H                     4.961    -2.72      1.108 
 H                     4.18     -4.168     1.76 
 H                     1.937    -5.629    -0.223 
 H                    -0.238    -6.779    -0.122 
 H                    -2.334    -5.497     0.111 
 H                    -3.914    -4.512    -1.635 
 H                    -4.765    -2.962    -1.61 
 
 ITRead=  0  0  0  0  0  0  0  0  0  0  0  0  0  0  0  0  0  0  0  0
 ITRead=  0  0  0  0  0  0  0  0  0  0  0  0  0  0  0  0  0  0  0  0
 ITRead=  0  0  0  0  0  0  0  0  0  0  0  0  0  0  0  0  0  0  0  0
 ITRead=  0  0  0  0  0  0  0  0  0  0  0  0  0  0  0  0  0  0  0  0
 ITRead=  0  0  0  0
 MicOpt= -1 -1 -1 -1 -1 -1 -1 -1 -1 -1 -1 -1 -1 -1 -1 -1 -1 -1 -1 -1
 MicOpt= -1 -1 -1 -1 -1 -1 -1 -1 -1 -1 -1 -1 -1 -1 -1 -1 -1 -1 -1 -1
 MicOpt= -1 -1 -1 -1 -1 -1 -1 -1 -1 -1 -1 -1 -1 -1 -1 -1 -1 -1 -1 -1
 MicOpt= -1 -1 -1 -1 -1 -1 -1 -1 -1 -1 -1 -1 -1 -1 -1 -1 -1 -1 -1 -1
 MicOpt= -1 -1 -1 -1
 NAtoms=     84 NQM=       84 NQMF=       0 NMMI=      0 NMMIF=      0
                NMic=       0 NMicF=      0.
                    Isotopes and Nuclear Properties:
 (Nuclear quadrupole moments (NQMom) in fm**2, nuclear magnetic moments (NMagM)
  in nuclear magnetons)

  Atom         1           2           3           4           5           6           7           8           9          10
 IAtWgt=          16          14          16          12          12          12          12          12          12          12
 AtmWgt=  15.9949146  14.0030740  15.9949146  12.0000000  12.0000000  12.0000000  12.0000000  12.0000000  12.0000000  12.0000000
 NucSpn=           0           2           0           0           0           0           0           0           0           0
 AtZEff=  -0.0000000  -0.0000000  -0.0000000  -0.0000000  -0.0000000  -0.0000000  -0.0000000  -0.0000000  -0.0000000  -0.0000000
 NQMom=    0.0000000   2.0440000   0.0000000   0.0000000   0.0000000   0.0000000   0.0000000   0.0000000   0.0000000   0.0000000
 NMagM=    0.0000000   0.4037610   0.0000000   0.0000000   0.0000000   0.0000000   0.0000000   0.0000000   0.0000000   0.0000000
 AtZNuc=   8.0000000   7.0000000   8.0000000   6.0000000   6.0000000   6.0000000   6.0000000   6.0000000   6.0000000   6.0000000

  Atom        11          12          13          14          15          16          17          18          19          20
 IAtWgt=          12          12          12          12          12          12          12          14          16          16
 AtmWgt=  12.0000000  12.0000000  12.0000000  12.0000000  12.0000000  12.0000000  12.0000000  14.0030740  15.9949146  15.9949146
 NucSpn=           0           0           0           0           0           0           0           2           0           0
 AtZEff=  -0.0000000  -0.0000000  -0.0000000  -0.0000000  -0.0000000  -0.0000000  -0.0000000  -0.0000000  -0.0000000  -0.0000000
 NQMom=    0.0000000   0.0000000   0.0000000   0.0000000   0.0000000   0.0000000   0.0000000   2.0440000   0.0000000   0.0000000
 NMagM=    0.0000000   0.0000000   0.0000000   0.0000000   0.0000000   0.0000000   0.0000000   0.4037610   0.0000000   0.0000000
 AtZNuc=   6.0000000   6.0000000   6.0000000   6.0000000   6.0000000   6.0000000   6.0000000   7.0000000   8.0000000   8.0000000

  Atom        21          22          23          24          25          26          27          28          29          30
 IAtWgt=          12          12          12          12          12          12          12          12          12          12
 AtmWgt=  12.0000000  12.0000000  12.0000000  12.0000000  12.0000000  12.0000000  12.0000000  12.0000000  12.0000000  12.0000000
 NucSpn=           0           0           0           0           0           0           0           0           0           0
 AtZEff=  -0.0000000  -0.0000000  -0.0000000  -0.0000000  -0.0000000  -0.0000000  -0.0000000  -0.0000000  -0.0000000  -0.0000000
 NQMom=    0.0000000   0.0000000   0.0000000   0.0000000   0.0000000   0.0000000   0.0000000   0.0000000   0.0000000   0.0000000
 NMagM=    0.0000000   0.0000000   0.0000000   0.0000000   0.0000000   0.0000000   0.0000000   0.0000000   0.0000000   0.0000000
 AtZNuc=   6.0000000   6.0000000   6.0000000   6.0000000   6.0000000   6.0000000   6.0000000   6.0000000   6.0000000   6.0000000

  Atom        31          32          33          34          35          36          37          38          39          40
 IAtWgt=          12          14          16          16          12          12          12          12          12          12
 AtmWgt=  12.0000000  14.0030740  15.9949146  15.9949146  12.0000000  12.0000000  12.0000000  12.0000000  12.0000000  12.0000000
 NucSpn=           0           2           0           0           0           0           0           0           0           0
 AtZEff=  -0.0000000  -0.0000000  -0.0000000  -0.0000000  -0.0000000  -0.0000000  -0.0000000  -0.0000000  -0.0000000  -0.0000000
 NQMom=    0.0000000   2.0440000   0.0000000   0.0000000   0.0000000   0.0000000   0.0000000   0.0000000   0.0000000   0.0000000
 NMagM=    0.0000000   0.4037610   0.0000000   0.0000000   0.0000000   0.0000000   0.0000000   0.0000000   0.0000000   0.0000000
 AtZNuc=   6.0000000   7.0000000   8.0000000   8.0000000   6.0000000   6.0000000   6.0000000   6.0000000   6.0000000   6.0000000

  Atom        41          42          43          44          45          46          47          48          49          50
 IAtWgt=          12          12          12          12          14          16          16          12          12          12
 AtmWgt=  12.0000000  12.0000000  12.0000000  12.0000000  14.0030740  15.9949146  15.9949146  12.0000000  12.0000000  12.0000000
 NucSpn=           0           0           0           0           2           0           0           0           0           0
 AtZEff=  -0.0000000  -0.0000000  -0.0000000  -0.0000000  -0.0000000  -0.0000000  -0.0000000  -0.0000000  -0.0000000  -0.0000000
 NQMom=    0.0000000   0.0000000   0.0000000   0.0000000   2.0440000   0.0000000   0.0000000   0.0000000   0.0000000   0.0000000
 NMagM=    0.0000000   0.0000000   0.0000000   0.0000000   0.4037610   0.0000000   0.0000000   0.0000000   0.0000000   0.0000000
 AtZNuc=   6.0000000   6.0000000   6.0000000   6.0000000   7.0000000   8.0000000   8.0000000   6.0000000   6.0000000   6.0000000

  Atom        51          52          53          54          55          56          57          58          59          60
 IAtWgt=          12          12          12          12          12          12          12          12           1           1
 AtmWgt=  12.0000000  12.0000000  12.0000000  12.0000000  12.0000000  12.0000000  12.0000000  12.0000000   1.0078250   1.0078250
 NucSpn=           0           0           0           0           0           0           0           0           1           1
 AtZEff=  -0.0000000  -0.0000000  -0.0000000  -0.0000000  -0.0000000  -0.0000000  -0.0000000  -0.0000000  -0.0000000  -0.0000000
 NQMom=    0.0000000   0.0000000   0.0000000   0.0000000   0.0000000   0.0000000   0.0000000   0.0000000   0.0000000   0.0000000
 NMagM=    0.0000000   0.0000000   0.0000000   0.0000000   0.0000000   0.0000000   0.0000000   0.0000000   2.7928460   2.7928460
 AtZNuc=   6.0000000   6.0000000   6.0000000   6.0000000   6.0000000   6.0000000   6.0000000   6.0000000   1.0000000   1.0000000

  Atom        61          62          63          64          65          66          67          68          69          70
 IAtWgt=           1           1           1           1           1           1           1           1           1           1
 AtmWgt=   1.0078250   1.0078250   1.0078250   1.0078250   1.0078250   1.0078250   1.0078250   1.0078250   1.0078250   1.0078250
 NucSpn=           1           1           1           1           1           1           1           1           1           1
 AtZEff=  -0.0000000  -0.0000000  -0.0000000  -0.0000000  -0.0000000  -0.0000000  -0.0000000  -0.0000000  -0.0000000  -0.0000000
 NQMom=    0.0000000   0.0000000   0.0000000   0.0000000   0.0000000   0.0000000   0.0000000   0.0000000   0.0000000   0.0000000
 NMagM=    2.7928460   2.7928460   2.7928460   2.7928460   2.7928460   2.7928460   2.7928460   2.7928460   2.7928460   2.7928460
 AtZNuc=   1.0000000   1.0000000   1.0000000   1.0000000   1.0000000   1.0000000   1.0000000   1.0000000   1.0000000   1.0000000

  Atom        71          72          73          74          75          76          77          78          79          80
 IAtWgt=           1           1           1           1           1           1           1           1           1           1
 AtmWgt=   1.0078250   1.0078250   1.0078250   1.0078250   1.0078250   1.0078250   1.0078250   1.0078250   1.0078250   1.0078250
 NucSpn=           1           1           1           1           1           1           1           1           1           1
 AtZEff=  -0.0000000  -0.0000000  -0.0000000  -0.0000000  -0.0000000  -0.0000000  -0.0000000  -0.0000000  -0.0000000  -0.0000000
 NQMom=    0.0000000   0.0000000   0.0000000   0.0000000   0.0000000   0.0000000   0.0000000   0.0000000   0.0000000   0.0000000
 NMagM=    2.7928460   2.7928460   2.7928460   2.7928460   2.7928460   2.7928460   2.7928460   2.7928460   2.7928460   2.7928460
 AtZNuc=   1.0000000   1.0000000   1.0000000   1.0000000   1.0000000   1.0000000   1.0000000   1.0000000   1.0000000   1.0000000

  Atom        81          82          83          84
 IAtWgt=           1           1           1           1
 AtmWgt=   1.0078250   1.0078250   1.0078250   1.0078250
 NucSpn=           1           1           1           1
 AtZEff=  -0.0000000  -0.0000000  -0.0000000  -0.0000000
 NQMom=    0.0000000   0.0000000   0.0000000   0.0000000
 NMagM=    2.7928460   2.7928460   2.7928460   2.7928460
 AtZNuc=   1.0000000   1.0000000   1.0000000   1.0000000
 Leave Link  101 at Thu Sep 20 16:23:12 2018, MaxMem=  1073741824 cpu:               1.6 elap:               0.1
 (Enter /shared/centos7/gaussian/g16/l202.exe)
 Stoichiometry    C46H26N4O8
 Framework group  C1[X(C46H26N4O8)]
 Deg. of freedom   246
 Full point group                 C1      NOp   1
 Largest Abelian subgroup         C1      NOp   1
 Largest concise Abelian subgroup C1      NOp   1
                         Standard orientation:                         
 ---------------------------------------------------------------------
 Center     Atomic      Atomic             Coordinates (Angstroms)
 Number     Number       Type             X           Y           Z
 ---------------------------------------------------------------------
      1          8           0        6.656094   -4.940649    2.511998
      2          7           0        6.812633   -5.036335    1.316831
      3          8           0        7.775094   -5.564111    0.809818
      4          6           0        5.780628   -4.484902    0.439915
      5          6           0        5.783372   -4.495712   -0.915090
      6          6           0        4.558021   -3.842771   -1.369803
      7          6           0        3.843146   -3.451225   -0.291051
      8          6           0        2.562082   -2.773759   -0.268706
      9          6           0        2.508951   -1.427106   -0.360494
     10          6           0        1.254753   -0.729441   -0.321173
     11          6           0        1.196234    0.668174   -0.420950
     12          6           0        2.388254    1.455101   -0.570033
     13          6           0        2.329119    2.801710   -0.666816
     14          6           0        3.550280    3.571851   -0.800930
     15          6           0        4.212794    3.891942   -1.934547
     16          6           0        5.389258    4.684690   -1.589614
     17          6           0        5.412513    4.828698   -0.242619
     18          7           0        6.412905    5.554078    0.539479
     19          8           0        7.321341    6.091939   -0.049354
     20          8           0        6.284865    5.583973    1.741610
     21          6           0        4.250283    4.135934    0.404446
     22          6           0        1.072906    3.501360   -0.627493
     23          6           0        1.005442    4.889910   -0.740262
     24          6           0       -0.223346    5.532762   -0.699972
     25          6           0       -1.394794    4.803990   -0.545902
     26          6           0       -1.345323    3.415305   -0.427115
     27          6           0       -2.538326    2.628369   -0.260031
     28          6           0       -3.813368    3.311871   -0.169691
     29          6           0       -4.704125    3.547362   -1.159784
     30          6           0       -5.843060    4.277823   -0.609573
     31          6           0       -5.613178    4.469376    0.712223
     32          7           0       -6.487447    5.163759    1.657169
     33          8           0       -7.525346    5.628087    1.243248
     34          8           0       -6.132878    5.241259    2.809829
     35          6           0       -4.305270    3.872056    1.135862
     36          6           0       -2.486190    1.280709   -0.171242
     37          6           0       -1.233993    0.581031   -0.226561
     38          6           0       -1.175473   -0.817583   -0.132784
     39          6           0       -2.366497   -1.604502    0.012299
     40          6           0       -2.308348   -2.952119    0.115082
     41          6           0       -3.534604   -3.706301    0.273203
     42          6           0       -3.941203   -4.424487    1.346520
     43          6           0       -5.249186   -5.006218    1.060742
     44          6           0       -5.607259   -4.626719   -0.190860
     45          7           0       -6.842351   -4.979849   -0.889683
     46          8           0       -7.002607   -4.557890   -2.011475
     47          8           0       -7.645591   -5.679928   -0.317973
     48          6           0       -4.559303   -3.761804   -0.824793
     49          6           0       -1.053142   -3.652775    0.061759
     50          6           0       -0.983700   -5.044304    0.128526
     51          6           0        0.245060   -5.686155    0.068237
     52          6           0        1.416517   -4.955385   -0.061833
     53          6           0        1.367062   -3.562706   -0.133619
     54          6           0        0.127132   -2.898937   -0.080317
     55          6           0        0.068400   -1.472323   -0.177090
     56          6           0       -0.047642    1.323914   -0.372644
     57          6           0       -0.106372    2.749528   -0.474417
     58          6           0        4.553142   -3.816102    0.982206
     59          1           0        6.539821   -4.909001   -1.577886
     60          1           0        4.300042   -3.716559   -2.415534
     61          1           0        3.432512   -0.842191   -0.466336
     62          1           0        3.357094    0.939313   -0.603051
     63          1           0        3.946765    3.626079   -2.952316
     64          1           0        6.099644    5.076088   -2.315269
     65          1           0        3.604677    4.828067    0.984166
     66          1           0        4.564876    3.347167    1.118043
     67          1           0        1.917931    5.481744   -0.866092
     68          1           0       -0.269561    6.622459   -0.791798
     69          1           0       -2.355728    5.330838   -0.524891
     70          1           0       -4.624018    3.261083   -2.202898
     71          1           0       -6.705041    4.597479   -1.190685
     72          1           0       -3.608402    4.620217    1.567262
     73          1           0       -4.423671    3.089054    1.911886
     74          1           0       -3.408750    0.697800   -0.048400
     75          1           0       -3.334349   -1.086707    0.048315
     76          1           0       -3.412182   -4.569665    2.282981
     77          1           0       -5.807871   -5.629487    1.754220
     78          1           0       -4.941068   -2.758586   -1.104297
     79          1           0       -4.149939   -4.200647   -1.757249
     80          1           0       -1.894154   -5.645120    0.223354
     81          1           0        0.289258   -6.778862    0.120064
     82          1           0        2.375412   -5.481245   -0.114842
     83          1           0        3.949748   -4.484700    1.629723
     84          1           0        4.789144   -2.928396    1.604078
 ---------------------------------------------------------------------
 Rotational constants (GHZ):           0.0362977           0.0308738           0.0175873
 Leave Link  202 at Thu Sep 20 16:23:13 2018, MaxMem=  1073741824 cpu:               0.1 elap:               0.0
 (Enter /shared/centos7/gaussian/g16/l301.exe)
 Standard basis: 6-31+G(d,p) (6D, 7F)
 Ernie: Thresh=  0.10000D-02 Tol=  0.10000D-05 Strict=F.
 There are  1232 symmetry adapted cartesian basis functions of A   symmetry.
 There are  1232 symmetry adapted basis functions of A   symmetry.
  1232 basis functions,  2038 primitive gaussians,  1232 cartesian basis functions
   197 alpha electrons      197 beta electrons
       nuclear repulsion energy      7142.3099731978 Hartrees.
 IExCor= 4235 DFT=T Ex+Corr=M06 ExCW=0 ScaHFX=  0.270000
 ScaDFX=  1.000000  1.000000  1.000000  1.000000 ScalE2=  1.000000  1.000000
 IRadAn=      5 IRanWt=     -1 IRanGd=            0 ICorTp=0 IEmpDi=  4
 NAtoms=   84 NActive=   84 NUniq=   84 SFac= 1.00D+00 NAtFMM=   60 NAOKFM=T Big=T
 Integral buffers will be    131072 words long.
 Raffenetti 2 integral format.
 Two-electron integral symmetry is turned on.
 Leave Link  301 at Thu Sep 20 16:23:13 2018, MaxMem=  1073741824 cpu:               0.6 elap:               0.1
 (Enter /shared/centos7/gaussian/g16/l302.exe)
 NPDir=0 NMtPBC=     1 NCelOv=     1 NCel=       1 NClECP=     1 NCelD=      1
         NCelK=      1 NCelE2=     1 NClLst=     1 CellRange=     0.0.
 One-electron integrals computed using PRISM.
 One-electron integral symmetry used in STVInt
 NBasis=  1232 RedAO= T EigKep=  1.03D-06  NBF=  1232
 NBsUse=  1201 1.00D-06 EigRej=  7.32D-07 NBFU=  1201
 Precomputing XC quadrature grid using
 IXCGrd= 4 IRadAn=           5 IRanWt=          -1 IRanGd=           0 AccXCQ= 0.00D+00.
 Generated NRdTot=       0 NPtTot=           0 NUsed=           0 NTot=          32
 NSgBfM=  1144  1144  1144  1144  1144 MxSgAt=    84 MxSgA2=    84.
 Leave Link  302 at Thu Sep 20 16:23:17 2018, MaxMem=  1073741824 cpu:              70.9 elap:               4.5
 (Enter /shared/centos7/gaussian/g16/l303.exe)
 DipDrv:  MaxL=1.
 Leave Link  303 at Thu Sep 20 16:23:17 2018, MaxMem=  1073741824 cpu:               2.8 elap:               0.2
 (Enter /shared/centos7/gaussian/g16/l401.exe)
 ExpMin= 4.38D-02 ExpMax= 5.48D+03 ExpMxC= 8.25D+02 IAcc=3 IRadAn=         5 AccDes= 0.00D+00
 Harris functional with IExCor= 1009 and IRadAn=       5 diagonalized for initial guess.
 HarFok:  IExCor= 1009 AccDes= 0.00D+00 IRadAn=         5 IDoV= 1 UseB2=F ITyADJ=14
 ICtDFT=  3500011 ScaDFX=  1.000000  1.000000  1.000000  1.000000
 FoFCou: FMM=F IPFlag=           0 FMFlag=      100000 FMFlg1=        2001
         NFxFlg=           0 DoJE=T BraDBF=F KetDBF=T FulRan=T
         wScrn=  0.000000 ICntrl=       500 IOpCl=  0 I1Cent=   200000004 NGrid=           0
         NMat0=    1 NMatS0=      1 NMatT0=    0 NMatD0=    1 NMtDS0=    0 NMtDT0=    0
 Petite list used in FoFCou.
 Harris En= -2586.74509784817    
 JPrj=0 DoOrth=F DoCkMO=F.
 Leave Link  401 at Thu Sep 20 16:23:31 2018, MaxMem=  1073741824 cpu:             223.2 elap:              14.1
 (Enter /shared/centos7/gaussian/g16/l502.exe)
 Integral symmetry usage will be decided dynamically.
 Closed shell SCF:
 Using DIIS extrapolation, IDIIS=  1040.
 NGot=  1073741824 LenX=  1070674696 LenY=  1069155640
 Requested convergence on RMS density matrix=1.00D-08 within 128 cycles.
 Requested convergence on MAX density matrix=1.00D-06.
 Requested convergence on             energy=1.00D-06.
 No special actions if energy rises.
 Fock matrices will be formed incrementally for  20 cycles.

 Cycle   1  Pass 1  IDiag  1:
 FoFJK:  IHMeth= 1 ICntrl=       0 DoSepK=F KAlg= 0 I1Cent=           0 FoldK=F
 IRaf= 730000000 NMat=       1 IRICut=       1 DoRegI=T DoRafI=F ISym2E= 0 IDoP0=0 IntGTp=1.
 FoFCou: FMM=T IPFlag=           0 FMFlag=      100000 FMFlg1=        2001
         NFxFlg=           0 DoJE=F BraDBF=F KetDBF=F FulRan=T
         wScrn=  0.000000 ICntrl=         0 IOpCl=  0 I1Cent=           0 NGrid=           0
         NMat0=    1 NMatS0=      1 NMatT0=    0 NMatD0=    1 NMtDS0=    0 NMtDT0=    0
 Symmetry not used in FoFCou.
 FMM levels:  10  Number of levels for PrismC:   9
 E= -2586.18752828857    
 DIIS: error= 1.58D-02 at cycle   1 NSaved=   1.
 NSaved= 1 IEnMin= 1 EnMin= -2586.18752828857     IErMin= 1 ErrMin= 1.58D-02
 ErrMax= 1.58D-02  0.00D+00 EMaxC= 1.00D-01 BMatC= 1.28D+00 BMatP= 1.28D+00
 IDIUse=3 WtCom= 8.42D-01 WtEn= 1.58D-01
 Coeff-Com:  0.100D+01
 Coeff-En:   0.100D+01
 Coeff:      0.100D+01
 Gap=     0.119 Goal=   None    Shift=    0.000
 GapD=    0.119 DampG=1.000 DampE=0.500 DampFc=0.5000 IDamp=-1.
 Damping current iteration by 5.00D-01
 RMSDP=3.66D-02 MaxDP=6.12D+00              OVMax= 3.04D-01

 Cycle   2  Pass 1  IDiag  1:
 RMSU=  1.44D-02    CP:  1.24D+00
 E= -2586.52555418760     Delta-E=       -0.338025899027 Rises=F Damp=T
 DIIS: error= 7.38D-03 at cycle   2 NSaved=   2.
 NSaved= 2 IEnMin= 2 EnMin= -2586.52555418760     IErMin= 2 ErrMin= 7.38D-03
 ErrMax= 7.38D-03  0.00D+00 EMaxC= 1.00D-01 BMatC= 1.76D-01 BMatP= 1.28D+00
 IDIUse=3 WtCom= 9.26D-01 WtEn= 7.38D-02
 Coeff-Com:  0.218D+00 0.782D+00
 Coeff-En:   0.328D+00 0.672D+00
 Coeff:      0.226D+00 0.774D+00
 Gap=     0.130 Goal=   None    Shift=    0.000
 RMSDP=9.90D-03 MaxDP=1.67D+00 DE=-3.38D-01 OVMax= 2.66D-01

 Cycle   3  Pass 1  IDiag  1:
 RMSU=  9.50D-03    CP:  1.19D+00  1.11D+00
 E= -2587.27571562756     Delta-E=       -0.750161439961 Rises=F Damp=F
 DIIS: error= 3.19D-03 at cycle   3 NSaved=   3.
 NSaved= 3 IEnMin= 3 EnMin= -2587.27571562756     IErMin= 3 ErrMin= 3.19D-03
 ErrMax= 3.19D-03  0.00D+00 EMaxC= 1.00D-01 BMatC= 6.48D-02 BMatP= 1.76D-01
 IDIUse=3 WtCom= 9.68D-01 WtEn= 3.19D-02
 Coeff-Com:  0.619D-01 0.383D+00 0.555D+00
 Coeff-En:   0.000D+00 0.000D+00 0.100D+01
 Coeff:      0.599D-01 0.371D+00 0.569D+00
 Gap=     0.115 Goal=   None    Shift=    0.000
 RMSDP=5.53D-03 MaxDP=7.00D-01 DE=-7.50D-01 OVMax= 6.04D-02

 Cycle   4  Pass 1  IDiag  1:
 RMSU=  3.29D-03    CP:  1.13D+00  9.55D-01  7.15D-01
 E= -2587.32655118902     Delta-E=       -0.050835561462 Rises=F Damp=F
 DIIS: error= 1.44D-03 at cycle   4 NSaved=   4.
 NSaved= 4 IEnMin= 4 EnMin= -2587.32655118902     IErMin= 4 ErrMin= 1.44D-03
 ErrMax= 1.44D-03  0.00D+00 EMaxC= 1.00D-01 BMatC= 1.28D-02 BMatP= 6.48D-02
 IDIUse=3 WtCom= 9.86D-01 WtEn= 1.44D-02
 Coeff-Com:  0.170D-01 0.129D+00 0.335D+00 0.519D+00
 Coeff-En:   0.000D+00 0.000D+00 0.154D+00 0.846D+00
 Coeff:      0.167D-01 0.127D+00 0.333D+00 0.524D+00
 Gap=     0.114 Goal=   None    Shift=    0.000
 RMSDP=1.68D-03 MaxDP=2.58D-01 DE=-5.08D-02 OVMax= 2.32D-02

 Cycle   5  Pass 1  IDiag  1:
 RMSU=  1.01D-03    CP:  1.14D+00  1.00D+00  7.89D-01  7.51D-01
 E= -2587.33647624487     Delta-E=       -0.009925055847 Rises=F Damp=F
 DIIS: error= 8.26D-04 at cycle   5 NSaved=   5.
 NSaved= 5 IEnMin= 5 EnMin= -2587.33647624487     IErMin= 5 ErrMin= 8.26D-04
 ErrMax= 8.26D-04  0.00D+00 EMaxC= 1.00D-01 BMatC= 2.70D-03 BMatP= 1.28D-02
 IDIUse=3 WtCom= 9.92D-01 WtEn= 8.26D-03
 Coeff-Com:  0.350D-02 0.286D-01 0.146D+00 0.355D+00 0.467D+00
 Coeff-En:   0.000D+00 0.000D+00 0.000D+00 0.158D+00 0.842D+00
 Coeff:      0.348D-02 0.283D-01 0.144D+00 0.354D+00 0.470D+00
 Gap=     0.115 Goal=   None    Shift=    0.000
 RMSDP=7.63D-04 MaxDP=9.73D-02 DE=-9.93D-03 OVMax= 1.24D-02

 Cycle   6  Pass 1  IDiag  1:
 RMSU=  5.41D-04    CP:  1.15D+00  1.02D+00  7.92D-01  6.58D-01  6.96D-01
 E= -2587.33857583498     Delta-E=       -0.002099590109 Rises=F Damp=F
 DIIS: error= 3.41D-04 at cycle   6 NSaved=   6.
 NSaved= 6 IEnMin= 6 EnMin= -2587.33857583498     IErMin= 6 ErrMin= 3.41D-04
 ErrMax= 3.41D-04  0.00D+00 EMaxC= 1.00D-01 BMatC= 3.92D-04 BMatP= 2.70D-03
 IDIUse=3 WtCom= 9.97D-01 WtEn= 3.41D-03
 Coeff-Com:  0.523D-03 0.142D-02 0.509D-01 0.156D+00 0.314D+00 0.477D+00
 Coeff-En:   0.000D+00 0.000D+00 0.000D+00 0.000D+00 0.112D+00 0.888D+00
 Coeff:      0.522D-03 0.141D-02 0.507D-01 0.155D+00 0.313D+00 0.479D+00
 Gap=     0.115 Goal=   None    Shift=    0.000
 RMSDP=1.85D-04 MaxDP=2.24D-02 DE=-2.10D-03 OVMax= 4.86D-03

 Cycle   7  Pass 1  IDiag  1:
 RMSU=  1.32D-04    CP:  1.15D+00  1.01D+00  7.90D-01  6.84D-01  7.42D-01
                    CP:  8.77D-01
 E= -2587.33886562343     Delta-E=       -0.000289788455 Rises=F Damp=F
 DIIS: error= 9.61D-05 at cycle   7 NSaved=   7.
 NSaved= 7 IEnMin= 7 EnMin= -2587.33886562343     IErMin= 7 ErrMin= 9.61D-05
 ErrMax= 9.61D-05  0.00D+00 EMaxC= 1.00D-01 BMatC= 5.03D-05 BMatP= 3.92D-04
 IDIUse=1 WtCom= 1.00D+00 WtEn= 0.00D+00
 Coeff-Com:  0.144D-03-0.376D-02 0.879D-02 0.349D-01 0.119D+00 0.308D+00
 Coeff-Com:  0.533D+00
 Coeff:      0.144D-03-0.376D-02 0.879D-02 0.349D-01 0.119D+00 0.308D+00
 Coeff:      0.533D+00
 Gap=     0.115 Goal=   None    Shift=    0.000
 RMSDP=1.47D-04 MaxDP=2.69D-02 DE=-2.90D-04 OVMax= 1.24D-03

 Cycle   8  Pass 1  IDiag  1:
 RMSU=  7.75D-05    CP:  1.15D+00  1.02D+00  7.98D-01  6.79D-01  7.42D-01
                    CP:  8.38D-01  9.77D-01
 E= -2587.33890608830     Delta-E=       -0.000040464864 Rises=F Damp=F
 DIIS: error= 4.75D-05 at cycle   8 NSaved=   8.
 NSaved= 8 IEnMin= 8 EnMin= -2587.33890608830     IErMin= 8 ErrMin= 4.75D-05
 ErrMax= 4.75D-05  0.00D+00 EMaxC= 1.00D-01 BMatC= 7.04D-06 BMatP= 5.03D-05
 IDIUse=1 WtCom= 1.00D+00 WtEn= 0.00D+00
 Coeff-Com:  0.112D-03-0.312D-02 0.120D-03 0.486D-02 0.457D-01 0.152D+00
 Coeff-Com:  0.336D+00 0.464D+00
 Coeff:      0.112D-03-0.312D-02 0.120D-03 0.486D-02 0.457D-01 0.152D+00
 Coeff:      0.336D+00 0.464D+00
 Gap=     0.115 Goal=   None    Shift=    0.000
 RMSDP=4.26D-05 MaxDP=4.48D-03 DE=-4.05D-05 OVMax= 9.44D-04

 Cycle   9  Pass 1  IDiag  1:
 RMSU=  2.53D-05    CP:  1.15D+00  1.02D+00  7.98D-01  6.78D-01  7.37D-01
                    CP:  8.83D-01  8.34D-01  8.62D-01
 E= -2587.33891207072     Delta-E=       -0.000005982425 Rises=F Damp=F
 DIIS: error= 2.72D-05 at cycle   9 NSaved=   9.
 NSaved= 9 IEnMin= 9 EnMin= -2587.33891207072     IErMin= 9 ErrMin= 2.72D-05
 ErrMax= 2.72D-05  0.00D+00 EMaxC= 1.00D-01 BMatC= 8.90D-07 BMatP= 7.04D-06
 IDIUse=1 WtCom= 1.00D+00 WtEn= 0.00D+00
 Coeff-Com:  0.942D-04-0.884D-03-0.123D-02-0.501D-02 0.241D-03 0.143D-01
 Coeff-Com:  0.463D-01 0.265D+00 0.682D+00
 Coeff:      0.942D-04-0.884D-03-0.123D-02-0.501D-02 0.241D-03 0.143D-01
 Coeff:      0.463D-01 0.265D+00 0.682D+00
 Gap=     0.115 Goal=   None    Shift=    0.000
 RMSDP=2.36D-05 MaxDP=3.08D-03 DE=-5.98D-06 OVMax= 4.31D-04

 Cycle  10  Pass 1  IDiag  1:
 RMSU=  1.43D-05    CP:  1.15D+00  1.02D+00  7.99D-01  6.75D-01  7.47D-01
                    CP:  8.87D-01  8.97D-01  8.88D-01  9.42D-01
 E= -2587.33891290888     Delta-E=       -0.000000838154 Rises=F Damp=F
 DIIS: error= 1.83D-05 at cycle  10 NSaved=  10.
 NSaved=10 IEnMin=10 EnMin= -2587.33891290888     IErMin=10 ErrMin= 1.83D-05
 ErrMax= 1.83D-05  0.00D+00 EMaxC= 1.00D-01 BMatC= 2.17D-07 BMatP= 8.90D-07
 IDIUse=1 WtCom= 1.00D+00 WtEn= 0.00D+00
 Coeff-Com:  0.642D-04-0.799D-04-0.706D-03-0.433D-02-0.642D-02-0.112D-01
 Coeff-Com: -0.176D-01 0.111D+00 0.447D+00 0.482D+00
 Coeff:      0.642D-04-0.799D-04-0.706D-03-0.433D-02-0.642D-02-0.112D-01
 Coeff:     -0.176D-01 0.111D+00 0.447D+00 0.482D+00
 Gap=     0.115 Goal=   None    Shift=    0.000
 RMSDP=9.66D-06 MaxDP=1.61D-03 DE=-8.38D-07 OVMax= 2.06D-04

 Cycle  11  Pass 1  IDiag  1:
 RMSU=  4.83D-06    CP:  1.15D+00  1.02D+00  7.99D-01  6.75D-01  7.44D-01
                    CP:  8.90D-01  8.80D-01  9.15D-01  1.10D+00  8.40D-01
 E= -2587.33891315024     Delta-E=       -0.000000241360 Rises=F Damp=F
 DIIS: error= 3.75D-06 at cycle  11 NSaved=  11.
 NSaved=11 IEnMin=11 EnMin= -2587.33891315024     IErMin=11 ErrMin= 3.75D-06
 ErrMax= 3.75D-06  0.00D+00 EMaxC= 1.00D-01 BMatC= 1.21D-08 BMatP= 2.17D-07
 IDIUse=1 WtCom= 1.00D+00 WtEn= 0.00D+00
 Coeff-Com:  0.152D-04 0.665D-04-0.108D-03-0.129D-02-0.266D-02-0.633D-02
 Coeff-Com: -0.162D-01 0.120D-01 0.111D+00 0.221D+00 0.682D+00
 Coeff:      0.152D-04 0.665D-04-0.108D-03-0.129D-02-0.266D-02-0.633D-02
 Coeff:     -0.162D-01 0.120D-01 0.111D+00 0.221D+00 0.682D+00
 Gap=     0.115 Goal=   None    Shift=    0.000
 RMSDP=1.91D-06 MaxDP=2.62D-04 DE=-2.41D-07 OVMax= 4.19D-05

 Cycle  12  Pass 1  IDiag  1:
 RMSU=  1.13D-06    CP:  1.15D+00  1.02D+00  7.99D-01  6.75D-01  7.44D-01
                    CP:  8.90D-01  8.85D-01  9.20D-01  1.10D+00  8.76D-01
                    CP:  8.67D-01
 E= -2587.33891316052     Delta-E=       -0.000000010281 Rises=F Damp=F
 DIIS: error= 1.17D-06 at cycle  12 NSaved=  12.
 NSaved=12 IEnMin=12 EnMin= -2587.33891316052     IErMin=12 ErrMin= 1.17D-06
 ErrMax= 1.17D-06  0.00D+00 EMaxC= 1.00D-01 BMatC= 3.45D-09 BMatP= 1.21D-08
 IDIUse=1 WtCom= 1.00D+00 WtEn= 0.00D+00
 Coeff-Com:  0.975D-06 0.431D-04 0.530D-05-0.346D-03-0.831D-03-0.230D-02
 Coeff-Com: -0.789D-02-0.434D-02 0.189D-01 0.758D-01 0.423D+00 0.498D+00
 Coeff:      0.975D-06 0.431D-04 0.530D-05-0.346D-03-0.831D-03-0.230D-02
 Coeff:     -0.789D-02-0.434D-02 0.189D-01 0.758D-01 0.423D+00 0.498D+00
 Gap=     0.115 Goal=   None    Shift=    0.000
 RMSDP=8.26D-07 MaxDP=2.07D-04 DE=-1.03D-08 OVMax= 1.38D-05

 Cycle  13  Pass 1  IDiag  1:
 RMSU=  5.54D-07    CP:  1.15D+00  1.02D+00  7.99D-01  6.75D-01  7.44D-01
                    CP:  8.90D-01  8.84D-01  9.22D-01  1.11D+00  8.65D-01
                    CP:  9.12D-01  8.58D-01
 E= -2587.33891316318     Delta-E=       -0.000000002663 Rises=F Damp=F
 DIIS: error= 3.97D-07 at cycle  13 NSaved=  13.
 NSaved=13 IEnMin=13 EnMin= -2587.33891316318     IErMin=13 ErrMin= 3.97D-07
 ErrMax= 3.97D-07  0.00D+00 EMaxC= 1.00D-01 BMatC= 4.99D-10 BMatP= 3.45D-09
 IDIUse=1 WtCom= 1.00D+00 WtEn= 0.00D+00
 Coeff-Com: -0.161D-05 0.206D-04 0.161D-04-0.751D-04-0.176D-03-0.624D-03
 Coeff-Com: -0.311D-02-0.391D-02-0.171D-02 0.163D-01 0.176D+00 0.310D+00
 Coeff-Com:  0.507D+00
 Coeff:     -0.161D-05 0.206D-04 0.161D-04-0.751D-04-0.176D-03-0.624D-03
 Coeff:     -0.311D-02-0.391D-02-0.171D-02 0.163D-01 0.176D+00 0.310D+00
 Coeff:      0.507D+00
 Gap=     0.115 Goal=   None    Shift=    0.000
 RMSDP=3.25D-07 MaxDP=5.06D-05 DE=-2.66D-09 OVMax= 9.26D-06

 Cycle  14  Pass 1  IDiag  1:
 RMSU=  1.80D-07    CP:  1.15D+00  1.02D+00  7.99D-01  6.75D-01  7.45D-01
                    CP:  8.90D-01  8.83D-01  9.21D-01  1.11D+00  8.64D-01
                    CP:  9.19D-01  8.82D-01  7.76D-01
 E= -2587.33891316405     Delta-E=       -0.000000000866 Rises=F Damp=F
 DIIS: error= 2.68D-07 at cycle  14 NSaved=  14.
 NSaved=14 IEnMin=14 EnMin= -2587.33891316405     IErMin=14 ErrMin= 2.68D-07
 ErrMax= 2.68D-07  0.00D+00 EMaxC= 1.00D-01 BMatC= 1.44D-10 BMatP= 4.99D-10
 IDIUse=1 WtCom= 1.00D+00 WtEn= 0.00D+00
 Coeff-Com: -0.156D-05 0.497D-05 0.106D-04 0.241D-04 0.893D-04 0.129D-03
 Coeff-Com: -0.420D-03-0.163D-02-0.578D-02-0.835D-02 0.223D-01 0.101D+00
 Coeff-Com:  0.376D+00 0.517D+00
 Coeff:     -0.156D-05 0.497D-05 0.106D-04 0.241D-04 0.893D-04 0.129D-03
 Coeff:     -0.420D-03-0.163D-02-0.578D-02-0.835D-02 0.223D-01 0.101D+00
 Coeff:      0.376D+00 0.517D+00
 Gap=     0.115 Goal=   None    Shift=    0.000
 RMSDP=1.31D-07 MaxDP=2.52D-05 DE=-8.66D-10 OVMax= 4.41D-06

 Cycle  15  Pass 1  IDiag  1:
 RMSU=  7.37D-08    CP:  1.15D+00  1.02D+00  7.99D-01  6.75D-01  7.44D-01
                    CP:  8.90D-01  8.83D-01  9.21D-01  1.11D+00  8.67D-01
                    CP:  9.22D-01  8.99D-01  8.53D-01  8.40D-01
 E= -2587.33891316389     Delta-E=        0.000000000155 Rises=F Damp=F
 DIIS: error= 6.93D-08 at cycle  15 NSaved=  15.
 NSaved=15 IEnMin=14 EnMin= -2587.33891316405     IErMin=15 ErrMin= 6.93D-08
 ErrMax= 6.93D-08  0.00D+00 EMaxC= 1.00D-01 BMatC= 1.68D-11 BMatP= 1.44D-10
 IDIUse=1 WtCom= 1.00D+00 WtEn= 0.00D+00
 Coeff-Com: -0.805D-06 0.287D-06 0.456D-05 0.229D-04 0.840D-04 0.174D-03
 Coeff-Com:  0.126D-03-0.453D-03-0.335D-02-0.765D-02-0.888D-02 0.214D-01
 Coeff-Com:  0.164D+00 0.325D+00 0.510D+00
 Coeff:     -0.805D-06 0.287D-06 0.456D-05 0.229D-04 0.840D-04 0.174D-03
 Coeff:      0.126D-03-0.453D-03-0.335D-02-0.765D-02-0.888D-02 0.214D-01
 Coeff:      0.164D+00 0.325D+00 0.510D+00
 Gap=     0.115 Goal=   None    Shift=    0.000
 RMSDP=6.96D-08 MaxDP=1.49D-05 DE= 1.55D-10 OVMax= 1.04D-06

 Cycle  16  Pass 1  IDiag  1:
 RMSU=  3.71D-08    CP:  1.15D+00  1.02D+00  7.99D-01  6.75D-01  7.44D-01
                    CP:  8.90D-01  8.83D-01  9.21D-01  1.11D+00  8.66D-01
                    CP:  9.20D-01  9.08D-01  9.30D-01  7.80D-01  8.81D-01
 E= -2587.33891316488     Delta-E=       -0.000000000991 Rises=F Damp=F
 DIIS: error= 1.89D-08 at cycle  16 NSaved=  16.
 NSaved=16 IEnMin=16 EnMin= -2587.33891316488     IErMin=16 ErrMin= 1.89D-08
 ErrMax= 1.89D-08  0.00D+00 EMaxC= 1.00D-01 BMatC= 1.23D-12 BMatP= 1.68D-11
 IDIUse=1 WtCom= 1.00D+00 WtEn= 0.00D+00
 Coeff-Com: -0.840D-07-0.480D-06 0.862D-06 0.491D-05 0.237D-04 0.559D-04
 Coeff-Com:  0.986D-04 0.856D-04-0.465D-03-0.202D-02-0.670D-02-0.673D-02
 Coeff-Com:  0.822D-02 0.544D-01 0.231D+00 0.723D+00
 Coeff:     -0.840D-07-0.480D-06 0.862D-06 0.491D-05 0.237D-04 0.559D-04
 Coeff:      0.986D-04 0.856D-04-0.465D-03-0.202D-02-0.670D-02-0.673D-02
 Coeff:      0.822D-02 0.544D-01 0.231D+00 0.723D+00
 Gap=     0.115 Goal=   None    Shift=    0.000
 RMSDP=3.02D-08 MaxDP=5.65D-06 DE=-9.91D-10 OVMax= 5.31D-07

 Cycle  17  Pass 1  IDiag  1:
 RMSU=  1.63D-08    CP:  1.15D+00  1.02D+00  7.99D-01  6.75D-01  7.44D-01
                    CP:  8.90D-01  8.83D-01  9.21D-01  1.11D+00  8.66D-01
                    CP:  9.20D-01  9.12D-01  9.10D-01  8.40D-01  9.68D-01
                    CP:  8.84D-01
 E= -2587.33891316380     Delta-E=        0.000000001086 Rises=F Damp=F
 DIIS: error= 1.98D-08 at cycle  17 NSaved=  17.
 NSaved=17 IEnMin=16 EnMin= -2587.33891316488     IErMin=16 ErrMin= 1.89D-08
 ErrMax= 1.98D-08  0.00D+00 EMaxC= 1.00D-01 BMatC= 5.03D-13 BMatP= 1.23D-12
 IDIUse=1 WtCom= 1.00D+00 WtEn= 0.00D+00
 Coeff-Com:  0.394D-07-0.364D-06 0.141D-06 0.701D-06 0.652D-05 0.181D-04
 Coeff-Com:  0.509D-04 0.109D-03 0.555D-04-0.540D-03-0.371D-02-0.752D-02
 Coeff-Com: -0.147D-01-0.232D-02 0.972D-01 0.497D+00 0.434D+00
 Coeff:      0.394D-07-0.364D-06 0.141D-06 0.701D-06 0.652D-05 0.181D-04
 Coeff:      0.509D-04 0.109D-03 0.555D-04-0.540D-03-0.371D-02-0.752D-02
 Coeff:     -0.147D-01-0.232D-02 0.972D-01 0.497D+00 0.434D+00
 Gap=     0.115 Goal=   None    Shift=    0.000
 RMSDP=1.50D-08 MaxDP=2.47D-06 DE= 1.09D-09 OVMax= 2.59D-07

 Cycle  18  Pass 1  IDiag  1:
 RMSU=  5.59D-09    CP:  1.15D+00  1.02D+00  7.99D-01  6.75D-01  7.44D-01
                    CP:  8.90D-01  8.83D-01  9.21D-01  1.11D+00  8.66D-01
                    CP:  9.21D-01  9.11D-01  9.22D-01  8.22D-01  9.78D-01
                    CP:  9.41D-01  5.34D-01
 E= -2587.33891316442     Delta-E=       -0.000000000618 Rises=F Damp=F
 DIIS: error= 3.27D-09 at cycle  18 NSaved=  18.
 NSaved=18 IEnMin=16 EnMin= -2587.33891316488     IErMin=18 ErrMin= 3.27D-09
 ErrMax= 3.27D-09  0.00D+00 EMaxC= 1.00D-01 BMatC= 2.58D-14 BMatP= 5.03D-13
 IDIUse=1 WtCom= 1.00D+00 WtEn= 0.00D+00
 Coeff-Com:  0.384D-07-0.127D-06-0.683D-07-0.672D-06-0.124D-05-0.864D-06
 Coeff-Com:  0.558D-05 0.359D-04 0.107D-03 0.102D-03-0.498D-03-0.247D-02
 Coeff-Com: -0.900D-02-0.119D-01 0.115D-02 0.999D-01 0.202D+00 0.720D+00
 Coeff:      0.384D-07-0.127D-06-0.683D-07-0.672D-06-0.124D-05-0.864D-06
 Coeff:      0.558D-05 0.359D-04 0.107D-03 0.102D-03-0.498D-03-0.247D-02
 Coeff:     -0.900D-02-0.119D-01 0.115D-02 0.999D-01 0.202D+00 0.720D+00
 Gap=     0.115 Goal=   None    Shift=    0.000
 RMSDP=3.74D-09 MaxDP=5.31D-07 DE=-6.18D-10 OVMax= 5.23D-08

 SCF Done:  E(RM06) =  -2587.33891316     A.U. after   18 cycles
            NFock= 18  Conv=0.37D-08     -V/T= 2.0101
 KE= 2.561352876873D+03 PE=-2.029298406861D+04 EE= 8.001982305375D+03
 Leave Link  502 at Thu Sep 20 16:51:51 2018, MaxMem=  1073741824 cpu:           27173.1 elap:            1699.7
 (Enter /shared/centos7/gaussian/g16/l601.exe)
 Copying SCF densities to generalized density rwf, IOpCl= 0 IROHF=0.

 **********************************************************************

            Population analysis using the SCF density.

 **********************************************************************

 Orbital symmetries:
       Occupied  (A) (A) (A) (A) (A) (A) (A) (A) (A) (A) (A) (A)
                 (A) (A) (A) (A) (A) (A) (A) (A) (A) (A) (A) (A)
                 (A) (A) (A) (A) (A) (A) (A) (A) (A) (A) (A) (A)
                 (A) (A) (A) (A) (A) (A) (A) (A) (A) (A) (A) (A)
                 (A) (A) (A) (A) (A) (A) (A) (A) (A) (A) (A) (A)
                 (A) (A) (A) (A) (A) (A) (A) (A) (A) (A) (A) (A)
                 (A) (A) (A) (A) (A) (A) (A) (A) (A) (A) (A) (A)
                 (A) (A) (A) (A) (A) (A) (A) (A) (A) (A) (A) (A)
                 (A) (A) (A) (A) (A) (A) (A) (A) (A) (A) (A) (A)
                 (A) (A) (A) (A) (A) (A) (A) (A) (A) (A) (A) (A)
                 (A) (A) (A) (A) (A) (A) (A) (A) (A) (A) (A) (A)
                 (A) (A) (A) (A) (A) (A) (A) (A) (A) (A) (A) (A)
                 (A) (A) (A) (A) (A) (A) (A) (A) (A) (A) (A) (A)
                 (A) (A) (A) (A) (A) (A) (A) (A) (A) (A) (A) (A)
                 (A) (A) (A) (A) (A) (A) (A) (A) (A) (A) (A) (A)
                 (A) (A) (A) (A) (A) (A) (A) (A) (A) (A) (A) (A)
                 (A) (A) (A) (A) (A)
       Virtual   (A) (A) (A) (A) (A) (A) (A) (A) (A) (A) (A) (A)
                 (A) (A) (A) (A) (A) (A) (A) (A) (A) (A) (A) (A)
                 (A) (A) (A) (A) (A) (A) (A) (A) (A) (A) (A) (A)
                 (A) (A) (A) (A) (A) (A) (A) (A) (A) (A) (A) (A)
                 (A) (A) (A) (A) (A) (A) (A) (A) (A) (A) (A) (A)
                 (A) (A) (A) (A) (A) (A) (A) (A) (A) (A) (A) (A)
                 (A) (A) (A) (A) (A) (A) (A) (A) (A) (A) (A) (A)
                 (A) (A) (A) (A) (A) (A) (A) (A) (A) (A) (A) (A)
                 (A) (A) (A) (A) (A) (A) (A) (A) (A) (A) (A) (A)
                 (A) (A) (A) (A) (A) (A) (A) (A) (A) (A) (A) (A)
                 (A) (A) (A) (A) (A) (A) (A) (A) (A) (A) (A) (A)
                 (A) (A) (A) (A) (A) (A) (A) (A) (A) (A) (A) (A)
                 (A) (A) (A) (A) (A) (A) (A) (A) (A) (A) (A) (A)
                 (A) (A) (A) (A) (A) (A) (A) (A) (A) (A) (A) (A)
                 (A) (A) (A) (A) (A) (A) (A) (A) (A) (A) (A) (A)
                 (A) (A) (A) (A) (A) (A) (A) (A) (A) (A) (A) (A)
                 (A) (A) (A) (A) (A) (A) (A) (A) (A) (A) (A) (A)
                 (A) (A) (A) (A) (A) (A) (A) (A) (A) (A) (A) (A)
                 (A) (A) (A) (A) (A) (A) (A) (A) (A) (A) (A) (A)
                 (A) (A) (A) (A) (A) (A) (A) (A) (A) (A) (A) (A)
                 (A) (A) (A) (A) (A) (A) (A) (A) (A) (A) (A) (A)
                 (A) (A) (A) (A) (A) (A) (A) (A) (A) (A) (A) (A)
                 (A) (A) (A) (A) (A) (A) (A) (A) (A) (A) (A) (A)
                 (A) (A) (A) (A) (A) (A) (A) (A) (A) (A) (A) (A)
                 (A) (A) (A) (A) (A) (A) (A) (A) (A) (A) (A) (A)
                 (A) (A) (A) (A) (A) (A) (A) (A) (A) (A) (A) (A)
                 (A) (A) (A) (A) (A) (A) (A) (A) (A) (A) (A) (A)
                 (A) (A) (A) (A) (A) (A) (A) (A) (A) (A) (A) (A)
                 (A) (A) (A) (A) (A) (A) (A) (A) (A) (A) (A) (A)
                 (A) (A) (A) (A) (A) (A) (A) (A) (A) (A) (A) (A)
                 (A) (A) (A) (A) (A) (A) (A) (A) (A) (A) (A) (A)
                 (A) (A) (A) (A) (A) (A) (A) (A) (A) (A) (A) (A)
                 (A) (A) (A) (A) (A) (A) (A) (A) (A) (A) (A) (A)
                 (A) (A) (A) (A) (A) (A) (A) (A) (A) (A) (A) (A)
                 (A) (A) (A) (A) (A) (A) (A) (A) (A) (A) (A) (A)
                 (A) (A) (A) (A) (A) (A) (A) (A) (A) (A) (A) (A)
                 (A) (A) (A) (A) (A) (A) (A) (A) (A) (A) (A) (A)
                 (A) (A) (A) (A) (A) (A) (A) (A) (A) (A) (A) (A)
                 (A) (A) (A) (A) (A) (A) (A) (A) (A) (A) (A) (A)
                 (A) (A) (A) (A) (A) (A) (A) (A) (A) (A) (A) (A)
                 (A) (A) (A) (A) (A) (A) (A) (A) (A) (A) (A) (A)
                 (A) (A) (A) (A) (A) (A) (A) (A) (A) (A) (A) (A)
                 (A) (A) (A) (A) (A) (A) (A) (A) (A) (A) (A) (A)
                 (A) (A) (A) (A) (A) (A) (A) (A) (A) (A) (A) (A)
                 (A) (A) (A) (A) (A) (A) (A) (A) (A) (A) (A) (A)
                 (A) (A) (A) (A) (A) (A) (A) (A) (A) (A) (A) (A)
                 (A) (A) (A) (A) (A) (A) (A) (A) (A) (A) (A) (A)
                 (A) (A) (A) (A) (A) (A) (A) (A) (A) (A) (A) (A)
                 (A) (A) (A) (A) (A) (A) (A) (A) (A) (A) (A) (A)
                 (A) (A) (A) (A) (A) (A) (A) (A) (A) (A) (A) (A)
                 (A) (A) (A) (A) (A) (A) (A) (A) (A) (A) (A) (A)
                 (A) (A) (A) (A) (A) (A) (A) (A) (A) (A) (A) (A)
                 (A) (A) (A) (A) (A) (A) (A) (A) (A) (A) (A) (A)
                 (A) (A) (A) (A) (A) (A) (A) (A) (A) (A) (A) (A)
                 (A) (A) (A) (A) (A) (A) (A) (A) (A) (A) (A) (A)
                 (A) (A) (A) (A) (A) (A) (A) (A) (A) (A) (A) (A)
                 (A) (A) (A) (A) (A) (A) (A) (A) (A) (A) (A) (A)
                 (A) (A) (A) (A) (A) (A) (A) (A) (A) (A) (A) (A)
                 (A) (A) (A) (A) (A) (A) (A) (A) (A) (A) (A) (A)
                 (A) (A) (A) (A) (A) (A) (A) (A) (A) (A) (A) (A)
                 (A) (A) (A) (A) (A) (A) (A) (A) (A) (A) (A) (A)
                 (A) (A) (A) (A) (A) (A) (A) (A) (A) (A) (A) (A)
                 (A) (A) (A) (A) (A) (A) (A) (A) (A) (A) (A) (A)
                 (A) (A) (A) (A) (A) (A) (A) (A) (A) (A) (A) (A)
                 (A) (A) (A) (A) (A) (A) (A) (A) (A) (A) (A) (A)
                 (A) (A) (A) (A) (A) (A) (A) (A) (A) (A) (A) (A)
                 (A) (A) (A) (A) (A) (A) (A) (A) (A) (A) (A) (A)
                 (A) (A) (A) (A) (A) (A) (A) (A) (A) (A) (A) (A)
                 (A) (A) (A) (A) (A) (A) (A) (A) (A) (A) (A) (A)
                 (A) (A) (A) (A) (A) (A) (A) (A) (A) (A) (A) (A)
                 (A) (A) (A) (A) (A) (A) (A) (A) (A) (A) (A) (A)
                 (A) (A) (A) (A) (A) (A) (A) (A) (A) (A) (A) (A)
                 (A) (A) (A) (A) (A) (A) (A) (A) (A) (A) (A) (A)
                 (A) (A) (A) (A) (A) (A) (A) (A) (A) (A) (A) (A)
                 (A) (A) (A) (A) (A) (A) (A) (A) (A) (A) (A) (A)
                 (A) (A) (A) (A) (A) (A) (A) (A) (A) (A) (A) (A)
                 (A) (A) (A) (A) (A) (A) (A) (A) (A) (A) (A) (A)
                 (A) (A) (A) (A) (A) (A) (A) (A) (A) (A) (A) (A)
                 (A) (A) (A) (A) (A) (A) (A) (A) (A) (A) (A) (A)
                 (A) (A) (A) (A) (A) (A) (A) (A) (A) (A) (A) (A)
                 (A) (A) (A) (A) (A) (A) (A) (A) (A) (A) (A) (A)
                 (A) (A) (A) (A) (A) (A) (A) (A) (A) (A) (A) (A)
                 (A) (A) (A) (A) (A) (A) (A) (A) (A) (A) (A) (A)
                 (A) (A) (A) (A) (A) (A) (A) (A)
 The electronic state is 1-A.
 Alpha  occ. eigenvalues --  -19.28535 -19.28505 -19.28500 -19.28496 -19.28270
 Alpha  occ. eigenvalues --  -19.28248 -19.28226 -19.28190 -14.67122 -14.67094
 Alpha  occ. eigenvalues --  -14.67078 -14.67056 -10.33921 -10.33892 -10.33859
 Alpha  occ. eigenvalues --  -10.33849 -10.32242 -10.32224 -10.32218 -10.32166
 Alpha  occ. eigenvalues --  -10.31897 -10.31861 -10.31835 -10.31804 -10.31412
 Alpha  occ. eigenvalues --  -10.31342 -10.31326 -10.31271 -10.31150 -10.31059
 Alpha  occ. eigenvalues --  -10.31059 -10.31058 -10.30993 -10.30991 -10.30974
 Alpha  occ. eigenvalues --  -10.30938 -10.30934 -10.30928 -10.30915 -10.30914
 Alpha  occ. eigenvalues --  -10.30863 -10.30832 -10.30821 -10.30784 -10.30591
 Alpha  occ. eigenvalues --  -10.30558 -10.30542 -10.30529 -10.30381 -10.30330
 Alpha  occ. eigenvalues --  -10.30323 -10.30321 -10.29966 -10.29949 -10.29921
 Alpha  occ. eigenvalues --  -10.29875 -10.29872 -10.29797  -1.27932  -1.27905
 Alpha  occ. eigenvalues --   -1.27885  -1.27853  -1.10135  -1.10118  -1.10100
 Alpha  occ. eigenvalues --   -1.10077  -0.96301  -0.94941  -0.94074  -0.94000
 Alpha  occ. eigenvalues --   -0.93606  -0.93027  -0.90737  -0.90115  -0.88808
 Alpha  occ. eigenvalues --   -0.86942  -0.85033  -0.84145  -0.84038  -0.81882
 Alpha  occ. eigenvalues --   -0.81585  -0.81350  -0.80395  -0.79988  -0.79082
 Alpha  occ. eigenvalues --   -0.77639  -0.77566  -0.77202  -0.76776  -0.76298
 Alpha  occ. eigenvalues --   -0.75211  -0.72652  -0.72432  -0.70919  -0.70636
 Alpha  occ. eigenvalues --   -0.69330  -0.67948  -0.67917  -0.67273  -0.66052
 Alpha  occ. eigenvalues --   -0.65919  -0.63478  -0.62545  -0.60371  -0.59951
 Alpha  occ. eigenvalues --   -0.59875  -0.59640  -0.59605  -0.59506  -0.59480
 Alpha  occ. eigenvalues --   -0.59275  -0.59060  -0.58220  -0.58055  -0.57774
 Alpha  occ. eigenvalues --   -0.57736  -0.57733  -0.57708  -0.57688  -0.57249
 Alpha  occ. eigenvalues --   -0.56956  -0.54447  -0.54307  -0.54239  -0.54077
 Alpha  occ. eigenvalues --   -0.53467  -0.53191  -0.52669  -0.52305  -0.52028
 Alpha  occ. eigenvalues --   -0.51640  -0.50734  -0.49708  -0.49598  -0.49280
 Alpha  occ. eigenvalues --   -0.48699  -0.48490  -0.48395  -0.48229  -0.48123
 Alpha  occ. eigenvalues --   -0.47870  -0.47705  -0.47397  -0.47036  -0.46379
 Alpha  occ. eigenvalues --   -0.45928  -0.45591  -0.45345  -0.45072  -0.44670
 Alpha  occ. eigenvalues --   -0.44396  -0.44227  -0.43803  -0.43730  -0.43689
 Alpha  occ. eigenvalues --   -0.43623  -0.43411  -0.42708  -0.42145  -0.41960
 Alpha  occ. eigenvalues --   -0.41813  -0.41543  -0.41286  -0.39787  -0.39108
 Alpha  occ. eigenvalues --   -0.38423  -0.37808  -0.37314  -0.36856  -0.36456
 Alpha  occ. eigenvalues --   -0.36405  -0.36340  -0.36196  -0.35912  -0.34328
 Alpha  occ. eigenvalues --   -0.34304  -0.34300  -0.34266  -0.33864  -0.33821
 Alpha  occ. eigenvalues --   -0.33815  -0.33730  -0.32815  -0.32082  -0.31932
 Alpha  occ. eigenvalues --   -0.31875  -0.31821  -0.31464  -0.30636  -0.30113
 Alpha  occ. eigenvalues --   -0.28565  -0.28344  -0.28291  -0.28154  -0.27900
 Alpha  occ. eigenvalues --   -0.27043  -0.22804
 Alpha virt. eigenvalues --   -0.11286  -0.10722  -0.10693  -0.10599  -0.10384
 Alpha virt. eigenvalues --   -0.07315  -0.06514  -0.05714  -0.05215  -0.04902
 Alpha virt. eigenvalues --   -0.04291  -0.04123  -0.03866  -0.03641  -0.03594
 Alpha virt. eigenvalues --   -0.03447  -0.03227  -0.03129  -0.03057  -0.02733
 Alpha virt. eigenvalues --   -0.02624  -0.02421  -0.02141  -0.02062  -0.01952
 Alpha virt. eigenvalues --   -0.01619  -0.01497  -0.01244  -0.00960  -0.00915
 Alpha virt. eigenvalues --   -0.00609  -0.00360  -0.00172   0.00060   0.00314
 Alpha virt. eigenvalues --    0.00579   0.00739   0.01275   0.01431   0.01694
 Alpha virt. eigenvalues --    0.01876   0.02010   0.02125   0.02434   0.02613
 Alpha virt. eigenvalues --    0.02715   0.02790   0.02934   0.03008   0.03098
 Alpha virt. eigenvalues --    0.03254   0.03565   0.03717   0.03812   0.04204
 Alpha virt. eigenvalues --    0.04450   0.04593   0.04601   0.04966   0.05177
 Alpha virt. eigenvalues --    0.05309   0.05654   0.05987   0.06048   0.06268
 Alpha virt. eigenvalues --    0.06416   0.06576   0.06641   0.06958   0.07181
 Alpha virt. eigenvalues --    0.07390   0.07465   0.07807   0.07919   0.08112
 Alpha virt. eigenvalues --    0.08223   0.08281   0.08763   0.08859   0.09003
 Alpha virt. eigenvalues --    0.09085   0.09122   0.09342   0.09545   0.09711
 Alpha virt. eigenvalues --    0.09878   0.10013   0.10076   0.10232   0.10434
 Alpha virt. eigenvalues --    0.10562   0.10788   0.10902   0.11006   0.11175
 Alpha virt. eigenvalues --    0.11206   0.11379   0.11446   0.11953   0.12052
 Alpha virt. eigenvalues --    0.12570   0.12602   0.12786   0.12956   0.13025
 Alpha virt. eigenvalues --    0.13157   0.13270   0.13497   0.13667   0.13813
 Alpha virt. eigenvalues --    0.14011   0.14206   0.14265   0.14299   0.14420
 Alpha virt. eigenvalues --    0.14758   0.14922   0.15082   0.15227   0.15329
 Alpha virt. eigenvalues --    0.15406   0.15433   0.15628   0.15664   0.15746
 Alpha virt. eigenvalues --    0.15958   0.16039   0.16104   0.16377   0.16593
 Alpha virt. eigenvalues --    0.16654   0.16851   0.16875   0.17089   0.17203
 Alpha virt. eigenvalues --    0.17373   0.17428   0.17550   0.17610   0.17693
 Alpha virt. eigenvalues --    0.17756   0.17797   0.17980   0.18350   0.18387
 Alpha virt. eigenvalues --    0.18552   0.18669   0.18815   0.18999   0.19088
 Alpha virt. eigenvalues --    0.19142   0.19490   0.19527   0.19692   0.19748
 Alpha virt. eigenvalues --    0.19880   0.20127   0.20184   0.20344   0.20441
 Alpha virt. eigenvalues --    0.20556   0.20657   0.20762   0.21028   0.21173
 Alpha virt. eigenvalues --    0.21270   0.21301   0.21452   0.21611   0.21674
 Alpha virt. eigenvalues --    0.21799   0.21878   0.22078   0.22191   0.22266
 Alpha virt. eigenvalues --    0.22363   0.22523   0.22716   0.22850   0.22925
 Alpha virt. eigenvalues --    0.23201   0.23279   0.23326   0.23489   0.23580
 Alpha virt. eigenvalues --    0.23733   0.23820   0.24024   0.24172   0.24229
 Alpha virt. eigenvalues --    0.24312   0.24454   0.24655   0.24822   0.24944
 Alpha virt. eigenvalues --    0.25091   0.25162   0.25316   0.25535   0.25701
 Alpha virt. eigenvalues --    0.25804   0.25846   0.26072   0.26221   0.26433
 Alpha virt. eigenvalues --    0.26588   0.26732   0.26913   0.27065   0.27161
 Alpha virt. eigenvalues --    0.27308   0.27377   0.27544   0.27574   0.27965
 Alpha virt. eigenvalues --    0.28073   0.28225   0.28436   0.28606   0.28853
 Alpha virt. eigenvalues --    0.29026   0.29316   0.29533   0.29638   0.29768
 Alpha virt. eigenvalues --    0.29861   0.30004   0.30145   0.30516   0.30715
 Alpha virt. eigenvalues --    0.30819   0.30881   0.31087   0.31360   0.31662
 Alpha virt. eigenvalues --    0.31790   0.31876   0.32077   0.32280   0.32532
 Alpha virt. eigenvalues --    0.32835   0.33051   0.33153   0.33500   0.33713
 Alpha virt. eigenvalues --    0.34020   0.34095   0.34261   0.34344   0.34483
 Alpha virt. eigenvalues --    0.34712   0.35170   0.35449   0.35542   0.35920
 Alpha virt. eigenvalues --    0.36319   0.36682   0.37096   0.37315   0.37569
 Alpha virt. eigenvalues --    0.37788   0.38023   0.38104   0.38448   0.38553
 Alpha virt. eigenvalues --    0.38707   0.38783   0.39090   0.39278   0.39330
 Alpha virt. eigenvalues --    0.39675   0.40129   0.40230   0.40398   0.40443
 Alpha virt. eigenvalues --    0.40681   0.40917   0.41337   0.41665   0.42073
 Alpha virt. eigenvalues --    0.42154   0.42607   0.42845   0.42888   0.43161
 Alpha virt. eigenvalues --    0.43375   0.43531   0.43613   0.43987   0.44338
 Alpha virt. eigenvalues --    0.44724   0.45257   0.45286   0.45989   0.46190
 Alpha virt. eigenvalues --    0.46613   0.48023   0.48179   0.48365   0.50249
 Alpha virt. eigenvalues --    0.50985   0.51828   0.52087   0.52200   0.52504
 Alpha virt. eigenvalues --    0.52578   0.52894   0.53694   0.54904   0.55195
 Alpha virt. eigenvalues --    0.55661   0.55843   0.56258   0.57272   0.57554
 Alpha virt. eigenvalues --    0.59745   0.61023   0.61745   0.62551   0.62874
 Alpha virt. eigenvalues --    0.63441   0.64056   0.64209   0.64747   0.65130
 Alpha virt. eigenvalues --    0.65436   0.66289   0.66514   0.67052   0.67276
 Alpha virt. eigenvalues --    0.67716   0.67776   0.68128   0.68317   0.68499
 Alpha virt. eigenvalues --    0.68704   0.68944   0.69109   0.69525   0.69648
 Alpha virt. eigenvalues --    0.69777   0.70018   0.70422   0.70524   0.70767
 Alpha virt. eigenvalues --    0.71318   0.71539   0.71654   0.71797   0.72114
 Alpha virt. eigenvalues --    0.72374   0.72518   0.72675   0.72917   0.73207
 Alpha virt. eigenvalues --    0.73306   0.73701   0.73800   0.73950   0.74284
 Alpha virt. eigenvalues --    0.74473   0.74796   0.74906   0.75492   0.75546
 Alpha virt. eigenvalues --    0.75679   0.76087   0.76475   0.76636   0.76850
 Alpha virt. eigenvalues --    0.77175   0.77296   0.77580   0.77775   0.78147
 Alpha virt. eigenvalues --    0.78227   0.78950   0.79252   0.79363   0.79795
 Alpha virt. eigenvalues --    0.80164   0.80701   0.80835   0.81100   0.81188
 Alpha virt. eigenvalues --    0.81802   0.81851   0.82049   0.82441   0.82562
 Alpha virt. eigenvalues --    0.83071   0.83454   0.83522   0.83718   0.83908
 Alpha virt. eigenvalues --    0.84201   0.84590   0.84859   0.85052   0.85212
 Alpha virt. eigenvalues --    0.85531   0.85549   0.85911   0.86099   0.86393
 Alpha virt. eigenvalues --    0.86748   0.87005   0.87036   0.87219   0.87737
 Alpha virt. eigenvalues --    0.88026   0.88186   0.88336   0.88445   0.88875
 Alpha virt. eigenvalues --    0.89338   0.89382   0.89886   0.90134   0.90461
 Alpha virt. eigenvalues --    0.90570   0.90956   0.91356   0.91435   0.92044
 Alpha virt. eigenvalues --    0.92272   0.92728   0.94014   0.94406   0.94825
 Alpha virt. eigenvalues --    0.95086   0.95522   0.95890   0.96391   0.96992
 Alpha virt. eigenvalues --    0.97510   0.98037   0.99076   1.00808   1.00892
 Alpha virt. eigenvalues --    1.01113   1.01456   1.01979   1.04297   1.04589
 Alpha virt. eigenvalues --    1.04931   1.05076   1.05272   1.05877   1.06338
 Alpha virt. eigenvalues --    1.07075   1.07162   1.07578   1.08056   1.09067
 Alpha virt. eigenvalues --    1.09386   1.09902   1.10732   1.11151   1.11592
 Alpha virt. eigenvalues --    1.12344   1.12703   1.13049   1.13306   1.13409
 Alpha virt. eigenvalues --    1.13599   1.14179   1.14795   1.14916   1.15203
 Alpha virt. eigenvalues --    1.15428   1.15581   1.15837   1.16200   1.16548
 Alpha virt. eigenvalues --    1.16756   1.16796   1.17174   1.17360   1.17500
 Alpha virt. eigenvalues --    1.17643   1.17828   1.17963   1.18155   1.18165
 Alpha virt. eigenvalues --    1.18572   1.18722   1.18967   1.19649   1.19702
 Alpha virt. eigenvalues --    1.19958   1.20296   1.20551   1.20753   1.21727
 Alpha virt. eigenvalues --    1.21804   1.21821   1.22157   1.22541   1.22765
 Alpha virt. eigenvalues --    1.23062   1.23572   1.23886   1.23927   1.24179
 Alpha virt. eigenvalues --    1.24256   1.24764   1.24967   1.25248   1.25426
 Alpha virt. eigenvalues --    1.25996   1.26252   1.26714   1.26751   1.27258
 Alpha virt. eigenvalues --    1.27477   1.27737   1.27754   1.28136   1.28347
 Alpha virt. eigenvalues --    1.28951   1.29047   1.29243   1.29568   1.29674
 Alpha virt. eigenvalues --    1.30003   1.30455   1.30730   1.30907   1.31230
 Alpha virt. eigenvalues --    1.31491   1.31901   1.32224   1.32308   1.32576
 Alpha virt. eigenvalues --    1.32810   1.33003   1.33186   1.33400   1.33702
 Alpha virt. eigenvalues --    1.33769   1.34378   1.34388   1.34602   1.34778
 Alpha virt. eigenvalues --    1.34976   1.35381   1.35914   1.36114   1.36275
 Alpha virt. eigenvalues --    1.36349   1.36629   1.36752   1.37204   1.37366
 Alpha virt. eigenvalues --    1.37594   1.38052   1.38138   1.38410   1.38876
 Alpha virt. eigenvalues --    1.39107   1.39845   1.40114   1.40840   1.41171
 Alpha virt. eigenvalues --    1.41734   1.41799   1.41845   1.41933   1.42566
 Alpha virt. eigenvalues --    1.44130   1.44521   1.45610   1.47482   1.47759
 Alpha virt. eigenvalues --    1.48011   1.48670   1.48823   1.49503   1.49954
 Alpha virt. eigenvalues --    1.52747   1.53063   1.53737   1.56097   1.56502
 Alpha virt. eigenvalues --    1.56873   1.58104   1.58570   1.58829   1.60720
 Alpha virt. eigenvalues --    1.61106   1.61463   1.61845   1.62858   1.62985
 Alpha virt. eigenvalues --    1.63232   1.64670   1.65062   1.65465   1.66803
 Alpha virt. eigenvalues --    1.67117   1.67952   1.68569   1.68837   1.69712
 Alpha virt. eigenvalues --    1.70658   1.71657   1.71785   1.72220   1.72766
 Alpha virt. eigenvalues --    1.73595   1.73632   1.73746   1.74021   1.74530
 Alpha virt. eigenvalues --    1.74658   1.74767   1.75095   1.75402   1.75483
 Alpha virt. eigenvalues --    1.75733   1.76448   1.76769   1.77267   1.77370
 Alpha virt. eigenvalues --    1.77489   1.77556   1.77567   1.77884   1.78420
 Alpha virt. eigenvalues --    1.79080   1.79826   1.80199   1.80637   1.80952
 Alpha virt. eigenvalues --    1.81953   1.82474   1.82667   1.82717   1.82807
 Alpha virt. eigenvalues --    1.82822   1.82869   1.83111   1.83398   1.83629
 Alpha virt. eigenvalues --    1.83856   1.84145   1.84661   1.84948   1.85133
 Alpha virt. eigenvalues --    1.85230   1.85450   1.86109   1.86766   1.86845
 Alpha virt. eigenvalues --    1.87425   1.87610   1.87905   1.88242   1.88581
 Alpha virt. eigenvalues --    1.88908   1.89078   1.89342   1.89482   1.89711
 Alpha virt. eigenvalues --    1.89792   1.90142   1.90846   1.91008   1.91320
 Alpha virt. eigenvalues --    1.91500   1.91652   1.91918   1.91977   1.92147
 Alpha virt. eigenvalues --    1.92521   1.92988   1.93485   1.94340   1.94786
 Alpha virt. eigenvalues --    1.95742   1.96291   1.96794   1.96803   1.97124
 Alpha virt. eigenvalues --    1.97291   1.97431   1.97674   1.98476   1.98694
 Alpha virt. eigenvalues --    1.98857   1.98929   1.99084   1.99252   1.99586
 Alpha virt. eigenvalues --    1.99631   2.00270   2.00324   2.00804   2.01092
 Alpha virt. eigenvalues --    2.02283   2.02795   2.02979   2.03577   2.04406
 Alpha virt. eigenvalues --    2.04771   2.05119   2.05651   2.06573   2.07789
 Alpha virt. eigenvalues --    2.08838   2.09464   2.09737   2.11378   2.12001
 Alpha virt. eigenvalues --    2.12361   2.13418   2.14576   2.14837   2.15550
 Alpha virt. eigenvalues --    2.15777   2.15828   2.15980   2.16324   2.16632
 Alpha virt. eigenvalues --    2.16833   2.17411   2.18271   2.18545   2.18926
 Alpha virt. eigenvalues --    2.18995   2.19000   2.19127   2.20035   2.20303
 Alpha virt. eigenvalues --    2.21618   2.22223   2.22891   2.23189   2.23376
 Alpha virt. eigenvalues --    2.24176   2.24276   2.25200   2.25653   2.26054
 Alpha virt. eigenvalues --    2.26704   2.27464   2.27741   2.28325   2.28932
 Alpha virt. eigenvalues --    2.29452   2.29895   2.30235   2.30638   2.31604
 Alpha virt. eigenvalues --    2.31827   2.32101   2.33089   2.33315   2.34410
 Alpha virt. eigenvalues --    2.34624   2.35076   2.35701   2.36048   2.36357
 Alpha virt. eigenvalues --    2.36513   2.37109   2.37663   2.38270   2.38558
 Alpha virt. eigenvalues --    2.38667   2.39255   2.39609   2.39850   2.40039
 Alpha virt. eigenvalues --    2.40224   2.40329   2.40529   2.41217   2.41490
 Alpha virt. eigenvalues --    2.41768   2.41950   2.42230   2.42260   2.43134
 Alpha virt. eigenvalues --    2.43676   2.43835   2.45332   2.45839   2.46153
 Alpha virt. eigenvalues --    2.46332   2.47360   2.47687   2.47986   2.48192
 Alpha virt. eigenvalues --    2.48524   2.49079   2.49402   2.49980   2.50137
 Alpha virt. eigenvalues --    2.50751   2.51237   2.51885   2.52581   2.53020
 Alpha virt. eigenvalues --    2.53221   2.53441   2.53497   2.53772   2.54585
 Alpha virt. eigenvalues --    2.55270   2.55732   2.56255   2.56576   2.56978
 Alpha virt. eigenvalues --    2.57456   2.58280   2.58356   2.58833   2.59878
 Alpha virt. eigenvalues --    2.60391   2.60870   2.61999   2.62180   2.62753
 Alpha virt. eigenvalues --    2.62923   2.63020   2.63623   2.63654   2.63928
 Alpha virt. eigenvalues --    2.64265   2.64407   2.64570   2.64702   2.65087
 Alpha virt. eigenvalues --    2.65534   2.65882   2.66057   2.66608   2.67271
 Alpha virt. eigenvalues --    2.68428   2.68548   2.68658   2.69623   2.69955
 Alpha virt. eigenvalues --    2.70298   2.70760   2.71050   2.72008   2.72623
 Alpha virt. eigenvalues --    2.73039   2.73608   2.73841   2.73929   2.74083
 Alpha virt. eigenvalues --    2.74252   2.75530   2.76064   2.76982   2.78378
 Alpha virt. eigenvalues --    2.78788   2.79232   2.80320   2.80633   2.82947
 Alpha virt. eigenvalues --    2.83379   2.84295   2.85386   2.86138   2.86464
 Alpha virt. eigenvalues --    2.86868   2.87183   2.88787   2.89457   2.89768
 Alpha virt. eigenvalues --    2.89814   2.90212   2.91503   2.96026   2.97456
 Alpha virt. eigenvalues --    2.98141   2.98413   2.99306   3.00283   3.01012
 Alpha virt. eigenvalues --    3.01137   3.01209   3.01609   3.01742   3.01873
 Alpha virt. eigenvalues --    3.02556   3.04186   3.05566   3.06442   3.07477
 Alpha virt. eigenvalues --    3.09193   3.09929   3.10586   3.10744   3.10827
 Alpha virt. eigenvalues --    3.11482   3.14917   3.15404   3.16029   3.16258
 Alpha virt. eigenvalues --    3.16350   3.16408   3.17128   3.18007   3.19390
 Alpha virt. eigenvalues --    3.20845   3.22514   3.23790   3.23802   3.23872
 Alpha virt. eigenvalues --    3.23993   3.25585   3.26531   3.26879   3.27526
 Alpha virt. eigenvalues --    3.27665   3.27937   3.28246   3.32166   3.33188
 Alpha virt. eigenvalues --    3.33220   3.33709   3.33765   3.36069   3.38135
 Alpha virt. eigenvalues --    3.38270   3.38486   3.39118   3.39813   3.40573
 Alpha virt. eigenvalues --    3.41192   3.50255   3.53618   3.57892   3.58278
 Alpha virt. eigenvalues --    3.60368   3.61215   3.62746   3.68502   3.74202
 Alpha virt. eigenvalues --    3.77825   4.20560   4.21302   4.21623   4.21760
 Alpha virt. eigenvalues --    4.22068   4.24363   4.25751   4.26600   4.27396
 Alpha virt. eigenvalues --    4.27710   4.29323   4.30045   4.30195   4.31174
 Alpha virt. eigenvalues --    4.31484   4.31773   4.32014   4.32962   4.33444
 Alpha virt. eigenvalues --    4.33749   4.33949   4.34664   4.36316   4.36644
 Alpha virt. eigenvalues --    4.37024   4.38297   4.39807   4.41308   4.42203
 Alpha virt. eigenvalues --    4.42674   4.43927   4.44996   4.46588   4.46769
 Alpha virt. eigenvalues --    4.46949   4.47459   4.48555   4.48704   4.54129
 Alpha virt. eigenvalues --    4.54794   4.57923   4.60890   4.63859   4.65132
 Alpha virt. eigenvalues --    4.65329   4.67504   4.69577   4.70804   4.70966
 Alpha virt. eigenvalues --    4.71455   4.71704   4.73994   4.78650   4.79413
 Alpha virt. eigenvalues --    4.79793   4.80802   4.89702   5.02125
          Condensed to atoms (all electrons):
 Mulliken charges:
               1
     1  O   -0.022063
     2  N   -0.363237
     3  O   -0.016421
     4  C   -0.617948
     5  C    0.474722
     6  C   -0.080875
     7  C   -0.043169
     8  C   -0.102145
     9  C   -0.089148
    10  C    0.043081
    11  C    0.039937
    12  C   -0.098840
    13  C   -0.117379
    14  C   -0.029304
    15  C   -0.117383
    16  C    0.501941
    17  C   -0.641261
    18  N   -0.361656
    19  O   -0.016925
    20  O   -0.021510
    21  C   -0.224448
    22  C    0.505364
    23  C   -0.226584
    24  C   -0.508003
    25  C   -0.229418
    26  C    0.492611
    27  C   -0.086813
    28  C   -0.030229
    29  C   -0.118882
    30  C    0.491035
    31  C   -0.623131
    32  N   -0.361103
    33  O   -0.017749
    34  O   -0.021559
    35  C   -0.231830
    36  C   -0.088166
    37  C    0.035604
    38  C    0.069405
    39  C   -0.143612
    40  C   -0.094799
    41  C    0.169422
    42  C   -0.108617
    43  C    0.448767
    44  C   -0.616676
    45  N   -0.378644
    46  O   -0.018815
    47  O   -0.014224
    48  C   -0.279453
    49  C    0.457313
    50  C   -0.226297
    51  C   -0.525200
    52  C   -0.215158
    53  C    0.507469
    54  C   -0.113725
    55  C   -0.027516
    56  C   -0.068958
    57  C   -0.096444
    58  C   -0.248206
    59  H    0.192545
    60  H    0.158208
    61  H    0.122398
    62  H    0.122104
    63  H    0.157744
    64  H    0.192418
    65  H    0.209609
    66  H    0.208968
    67  H    0.145378
    68  H    0.159719
    69  H    0.145202
    70  H    0.158427
    71  H    0.193092
    72  H    0.208464
    73  H    0.209691
    74  H    0.121835
    75  H    0.109512
    76  H    0.159762
    77  H    0.192106
    78  H    0.197845
    79  H    0.214236
    80  H    0.145996
    81  H    0.158415
    82  H    0.144878
    83  H    0.208659
    84  H    0.209642
 Sum of Mulliken charges =  -0.00000
 Mulliken charges with hydrogens summed into heavy atoms:
               1
     1  O   -0.022063
     2  N   -0.363237
     3  O   -0.016421
     4  C   -0.617948
     5  C    0.667267
     6  C    0.077333
     7  C   -0.043169
     8  C   -0.102145
     9  C    0.033250
    10  C    0.043081
    11  C    0.039937
    12  C    0.023264
    13  C   -0.117379
    14  C   -0.029304
    15  C    0.040361
    16  C    0.694359
    17  C   -0.641261
    18  N   -0.361656
    19  O   -0.016925
    20  O   -0.021510
    21  C    0.194129
    22  C    0.505364
    23  C   -0.081205
    24  C   -0.348283
    25  C   -0.084216
    26  C    0.492611
    27  C   -0.086813
    28  C   -0.030229
    29  C    0.039546
    30  C    0.684127
    31  C   -0.623131
    32  N   -0.361103
    33  O   -0.017749
    34  O   -0.021559
    35  C    0.186325
    36  C    0.033669
    37  C    0.035604
    38  C    0.069405
    39  C   -0.034100
    40  C   -0.094799
    41  C    0.169422
    42  C    0.051145
    43  C    0.640873
    44  C   -0.616676
    45  N   -0.378644
    46  O   -0.018815
    47  O   -0.014224
    48  C    0.132628
    49  C    0.457313
    50  C   -0.080301
    51  C   -0.366785
    52  C   -0.070279
    53  C    0.507469
    54  C   -0.113725
    55  C   -0.027516
    56  C   -0.068958
    57  C   -0.096444
    58  C    0.170095
 Electronic spatial extent (au):  <R**2>=          55346.1398
 Charge=             -0.0000 electrons
 Dipole moment (field-independent basis, Debye):
    X=              0.3239    Y=             -1.5928    Z=             -6.0501  Tot=              6.2646
 Quadrupole moment (field-independent basis, Debye-Ang):
   XX=           -485.8022   YY=           -377.2909   ZZ=           -338.9165
   XY=             -3.7013   XZ=            -31.5211   YZ=            -29.9003
 Traceless Quadrupole moment (field-independent basis, Debye-Ang):
   XX=            -85.1323   YY=             23.3789   ZZ=             61.7534
   XY=             -3.7013   XZ=            -31.5211   YZ=            -29.9003
 Octapole moment (field-independent basis, Debye-Ang**2):
  XXX=             45.1225  YYY=           -144.7617  ZZZ=            -28.4125  XYY=            -59.5918
  XXY=             35.1348  XXZ=           -288.4431  XZZ=             30.0115  YZZ=            -14.8313
  YYZ=           -180.3804  XYZ=            243.9162
 Hexadecapole moment (field-independent basis, Debye-Ang**3):
 XXXX=         -51054.0541 YYYY=         -35122.4999 ZZZZ=          -2330.0550 XXXY=           -483.3006
 XXXZ=          -1385.9335 YYYX=           -163.1705 YYYZ=           -836.5307 ZZZX=           -118.4573
 ZZZY=            -99.6002 XXYY=         -18988.1278 XXZZ=          -7315.4369 YYZZ=          -6304.0699
 XXYZ=          -1201.9823 YYXZ=           -779.3573 ZZXY=            358.2245
 N-N= 7.142309973198D+03 E-N=-2.029298406931D+04  KE= 2.561352876873D+03
 No NMR shielding tensors so no spin-rotation constants.
 Leave Link  601 at Thu Sep 20 16:51:53 2018, MaxMem=  1073741824 cpu:              18.5 elap:               1.4
 (Enter /shared/centos7/gaussian/g16/l9999.exe)
 1\1\GINC-C0239\SP\RM06\6-31+G(d,p)\C46H26N4O8\ABREHA.B\20-Sep-2018\0\\
 #p M06/6-31+G(d,p)\\AAACLBGNAMDLRM-UHFFFAOYSA-N_3_sp\\0,1\O,0,-6.616,-
 4.988,-2.52\N,0,-6.773,-5.085,-1.325\O,0,-7.732,-5.62,-0.819\C,0,-5.74
 6,-4.526,-0.447\C,0,-5.75,-4.537,0.908\C,0,-4.53,-3.875,1.364\C,0,-3.8
 17,-3.478,0.286\C,0,-2.541,-2.791,0.265\C,0,-2.498,-1.444,0.357\C,0,-1
 .249,-0.737,0.319\C,0,-1.201,0.661,0.419\C,0,-2.399,1.439,0.567\C,0,-2
 .35,2.786,0.664\C,0,-3.577,3.547,0.797\C,0,-4.243,3.862,1.93\C,0,-5.42
 5,4.646,1.584\C,0,-5.448,4.79,0.237\N,0,-6.453,5.508,-0.546\O,0,-7.366
 ,6.039,0.042\O,0,-6.324,5.539,-1.748\C,0,-4.28,4.106,-0.409\C,0,-1.099
 ,3.495,0.626\C,0,-1.042,4.884,0.739\C,0,0.182,5.536,0.7\C,0,1.359,4.81
 6,0.547\C,0,1.32,3.427,0.428\C,0,2.519,2.649,0.262\C,0,3.789,3.342,0.1
 73\C,0,4.677,3.584,1.164\C,0,5.811,4.323,0.615\C,0,5.581,4.513,-0.707\
 N,0,6.451,5.214,-1.651\O,0,7.485,5.686,-1.236\O,0,6.097,5.289,-2.804\C
 ,0,4.278,3.906,-1.132\C,0,2.477,1.301,0.173\C,0,1.23,0.592,0.227\C,0,1
 .182,-0.807,0.133\C,0,2.379,-1.585,-0.011\C,0,2.331,-2.933,-0.114\C,0,
 3.563,-3.678,-0.271\C,0,3.976,-4.393,-1.344\C,0,5.288,-4.965,-1.057\C,
 0,5.642,-4.583,0.195\N,0,6.879,-4.927,0.895\O,0,7.035,-4.504,2.017\O,0
 ,7.688,-5.621,0.324\C,0,4.587,-3.726,0.828\C,0,1.081,-3.643,-0.062\C,0
 ,1.022,-5.035,-0.129\C,0,-0.202,-5.686,-0.07\C,0,-1.379,-4.964,0.059\C
 ,0,-1.34,-3.571,0.131\C,0,-0.105,-2.898,0.079\C,0,-0.057,-1.471,0.176\
 C,0,0.038,1.326,0.372\C,0,0.086,2.752,0.474\C,0,-4.523,-3.848,-0.988\H
 ,0,-6.504,-4.956,1.57\H,0,-4.274,-3.747,2.41\H,0,-3.426,-0.866,0.462\H
 ,0,-3.364,0.916,0.599\H,0,-3.976,3.598,2.948\H,0,-6.139,5.032,2.309\H,
 0,-3.639,4.803,-0.988\H,0,-4.588,3.315,-1.123\H,0,-1.959,5.469,0.864\H
 ,0,0.22,6.626,0.792\H,0,2.316,5.35,0.527\H,0,4.598,3.297,2.207\H,0,6.6
 7,4.649,1.197\H,0,3.576,4.649,-1.564\H,0,4.403,3.124,-1.908\H,0,3.404,
 0.725,0.051\H,0,3.343,-1.06,-0.046\H,0,3.449,-4.542,-2.281\H,0,5.852,-
 5.584,-1.75\H,0,4.961,-2.72,1.108\H,0,4.18,-4.168,1.76\H,0,1.937,-5.62
 9,-0.223\H,0,-0.238,-6.779,-0.122\H,0,-2.334,-5.497,0.111\H,0,-3.914,-
 4.512,-1.635\H,0,-4.765,-2.962,-1.61\\Version=EM64L-G16RevA.03\State=1
 -A\HF=-2587.3389132\RMSD=3.741e-09\Dipole=-0.1250864,-0.6279047,2.3800
 718\Quadrupole=-63.2836511,17.412655,45.8709961,2.1313593,-23.7076398,
 22.0533532\PG=C01 [X(C46H26N4O8)]\\@


 CHARLIE BROWN -- WHICH DO YOU THINK LASTS LONGER IN LIFE, THE GOOD THINGS 
                  OR THE BAD THINGS?
 LINUS --         GOOD THINGS LAST EIGHT SECONDS ..
                  BAD THINGS LAST THREE WEEKS
 CHARLIE BROWN -- WHAT ABOUT IN BETWEEN?
 SNOOPY --        IN BETWEEN YOU SHOULD TAKE A NAP ...
 Job cpu time:       0 days  7 hours 38 minutes 45.2 seconds.
 Elapsed time:       0 days  0 hours 28 minutes 42.4 seconds.
 File lengths (MBytes):  RWF=   1024 Int=      0 D2E=      0 Chk=    112 Scr=     32
 Normal termination of Gaussian 16 at Thu Sep 20 16:51:53 2018.
